<?xml version="1.0" encoding="iso-8859-1"?>

<configuration xmlns:xsi="http://www.w3.org/2001/XMLSchema-instance" xsi:noNamespaceSchemaLocation="http://sumo.sf.net/xsd/sumoConfiguration.xsd">

    <input>
        <net-file value="freeway.net.xml"/>
        <route-files value="freeway.rou.xml"/>
        <additional-files value="freeway.add.xml myDistrictPolygons.add.xml"/>
        

    </input>



    <time>
        <begin value="0"/>
        <end value="3772"/>
        <step-length value="0.1"/>
    </time>

    <output>
        <summary value="simsummary.xml"/>
        <lanechange-output value="LCout.xml"/>
        <emission-output value="emissions.xml"/>
        

    </output>

    <gui_only>
        <start value="true"/>
        <gui-settings-file value="freeway.gui.xml"/>
    </gui_only>

</configuration>
